      51
 i =        1, E =     -1739.5741886250
 Mo         4.2145786156        4.1232795573        5.5649999996
  S         5.5507495918        4.8960260002        3.9851955864
  S         5.5507495920        4.8960260005        7.1448044122
 Mo         5.6370053977        6.7014325727        5.5649999992
  S         7.1120980169        7.6800382365        4.0055745444
  S         7.1120980126        7.6800382373        7.1244254567
 Mo         7.2571020431        9.4308548229        5.5649999996
  S         8.7026769133       10.4303989769        4.0021490507
  S         8.7026769140       10.4303989776        7.1278509494
 Mo         8.8454054492       12.1820484742        5.5649999999
  S        10.2894680008       13.1830304107        4.0056954491
  S        10.2894680017       13.1830304123        7.1243045532
 Mo        10.4007052962       14.9498808073        5.5650000005
  S        11.9196834781       15.9279927427        3.9851027750
  S        11.9196834771       15.9279927470        7.1448972264
 Mo        11.9199679505       17.4710862600        5.5649999992
 Mo         7.1577660711        4.0680832680        5.5650000014
  S         8.7428434016        4.8560183742        4.0058252470
  S         8.7428434036        4.8560183783        7.1241747529
 Mo         8.7554487686        6.7469315995        5.5650000010
  S        10.3382210986        7.6599874444        3.9898391176
  S        10.3382210953        7.6599874523        7.1401608877
 Mo        10.3372955334        9.4865253011        5.5650000013
  S        11.9196788212       10.3993619598        3.9899491011
  S        11.9196788195       10.3993619661        7.1400509059
 Mo        11.9197090467       12.2264708028        5.5650000008
  S        13.5499230294       13.1830449067        4.0058259027
  S        13.5499230293       13.1830449094        7.1241741009
 Mo        13.4387006520       14.9497626369        5.5650000010
 Mo        10.3319220127        4.1063855266        5.5650000003
  S        11.9196719678        4.8578867964        4.0020046839
  S        11.9196719668        4.8578868127        7.1279953095
 Mo        11.9196914912        6.7464611903        5.5649999965
  S        13.5011345912        7.6599889818        3.9898386473
  S        13.5011345793        7.6599889941        7.1401613484
 Mo        13.5020364992        9.4864965253        5.5649999965
  S        15.1367257597       10.4304330891        4.0022666968
  S        15.1367257543       10.4304330837        7.1277332996
 Mo        14.9939558713       12.1819349953        5.5650000009
 Mo        13.5076621498        4.1064017155        5.5650000008
  S        15.0965093969        4.8560167876        4.0057845048
  S        15.0965093931        4.8560167877        7.1242154924
 Mo        15.0840063920        6.7469110964        5.5650000027
  S        16.7272871136        7.6800648706        4.0056641202
  S        16.7272871179        7.6800648726        7.1243358796
 Mo        16.5822617951        9.4307100188        5.5649999994
 Mo        16.6819109571        4.0681304524        5.5649999992
  S        18.2886268693        4.8960193054        3.9852256464
  S        18.2886268667        4.8960193056        7.1447743527
 Mo        18.2023948223        6.7012330122        5.5649999989
 Mo        19.6248797557        4.1235573157        5.5650000005
      51
 i =        2, E =     -1739.5976950129
 Mo         4.3208046192        4.1832591259        5.5649999993
  S         5.5971962508        4.9228205384        3.9211717003
  S         5.5971962479        4.9228205390        7.2088282994
 Mo         5.6395609401        6.6857775454        5.5649999992
  S         7.1106659897        7.6707173503        4.0046493820
  S         7.1106659859        7.6707173503        7.1253506179
 Mo         7.2470369718        9.4480770555        5.5649999994
  S         8.7166914262       10.4222887402        3.9836045079
  S         8.7166914271       10.4222887396        7.1463954922
 Mo         8.8256715843       12.1817333464        5.5649999992
  S        10.2972757806       13.1888146467        4.0048267504
  S        10.2972757822       13.1888146391        7.1251732451
 Mo        10.4160677903       14.9567985191        5.5649999994
  S        11.9197057241       15.8746518055        3.9207775571
  S        11.9197057223       15.8746518005        7.2092224397
 Mo        11.9199655590       17.3496666160        5.5649999995
 Mo         7.1450864062        4.0783080182        5.5650000020
  S         8.7342935238        4.8592142966        4.0048512120
  S         8.7342935228        4.8592142975        7.1251487894
 Mo         8.7436230367        6.7401233313        5.5650000015
  S        10.3324808693        7.6568281316        4.0174485167
  S        10.3324808671        7.6568281232        7.1125514892
 Mo        10.3319717956        9.4895575604        5.5650000044
  S        11.9197100812       10.4061323496        4.0175512661
  S        11.9197100802       10.4061323520        7.1124487443
 Mo        11.9196407053       12.2401764242        5.5650000026
  S        13.5421315770       13.1887942049        4.0048263603
  S        13.5421315803       13.1887942211        7.1251736522
 Mo        13.4232372474       14.9567843231        5.5649999979
 Mo        10.3424540536        4.0893609052        5.5650000012
  S        11.9197158282        4.8734268555        3.9826648034
  S        11.9197158271        4.8734268764        7.1473351850
 Mo        11.9196413285        6.7402948375        5.5649999967
  S        13.5069535872        7.6568202730        4.0174439634
  S        13.5069535847        7.6568202939        7.1125560264
 Mo        13.5072876593        9.4895437521        5.5649999969
  S        15.1227100578       10.4222716104        3.9835826452
  S        15.1227100535       10.4222716080        7.1464173516
 Mo        15.0137484581       12.1817092218        5.5650000031
 Mo        13.4969721345        4.0894258374        5.5650000011
  S        15.1051722779        4.8591841795        4.0048344099
  S        15.1051722767        4.8591841781        7.1251655913
 Mo        15.0956784273        6.7401124701        5.5650000014
  S        16.7287791715        7.6706923066        4.0046335006
  S        16.7287791768        7.6706923072        7.1253664986
 Mo        16.5923094023        9.4480513982        5.5649999995
 Mo        16.6944214536        4.0783274817        5.5649999981
  S        18.2421798668        4.9228398123        3.9210620073
  S        18.2421798648        4.9228398106        7.2089379931
 Mo        18.1998164787        6.6855991473        5.5649999994
 Mo        19.5186846389        4.1835183094        5.5650000001
      51
 i =        3, E =     -1739.6145820645
 Mo         4.4303695945        4.2429800130        5.5649999986
  S         5.6935929009        4.9787855413        3.8202519798
  S         5.6935928934        4.9787855389        7.3097480228
 Mo         5.6771504657        6.6359620658        5.5649999981
  S         7.1105527429        7.6873824112        4.0110885760
  S         7.1105527397        7.6873824076        7.1189114212
 Mo         7.2563692595        9.4753230353        5.5649999994
  S         8.7228984298       10.4185779483        3.9700866045
  S         8.7228984270       10.4185779474        7.1599133952
 Mo         8.8071397492       12.1595145722        5.5649999962
  S        10.2834329219       13.1808617828        4.0116455863
  S        10.2834329212       13.1808617716        7.1183544025
 Mo        10.4790795176       14.9517611578        5.5649999970
  S        11.9197004436       15.7635860733        3.8202939718
  S        11.9197004436       15.7635860548        7.3097060140
 Mo        11.9200287071       17.2267017478        5.5650000013
 Mo         7.1192333648        4.1356389184        5.5650000000
  S         8.7488537169        4.8505593928        4.0116145317
  S         8.7488537152        4.8505593894        7.1183854709
 Mo         8.7240228177        6.7285548391        5.5650000011
  S        10.3187827980        7.6488551589        4.0293606422
  S        10.3187827986        7.6488551338        7.1006393660
 Mo        10.3327123571        9.4893825667        5.5650000122
  S        11.9196872496       10.4220478580        4.0288032446
  S        11.9196872567       10.4220478583        7.1011967802
 Mo        11.9196615314       12.2623805638        5.5650000070
  S        13.5560225681       13.1808178006        4.0115802753
  S        13.5560225774       13.1808178318        7.1184197431
 Mo        13.3600870456       14.9519305449        5.5649999937
 Mo        10.3719068231        4.0834416218        5.5650000037
  S        11.9197420726        4.8804703356        3.9682340274
  S        11.9197420748        4.8804703700        7.1617659556
 Mo        11.9196820732        6.7405560040        5.5649999947
  S        13.5206402734        7.6488279161        4.0293743185
  S        13.5206402787        7.6488279409        7.1006256636
 Mo        13.5066762814        9.4893972165        5.5649999954
  S        15.1165038018       10.4185312889        3.9699956367
  S        15.1165037996       10.4185312807        7.1600043637
 Mo        15.0322566726       12.1595079589        5.5650000076
 Mo        13.4673366908        4.0834596218        5.5650000005
  S        15.0906519965        4.8505343798        4.0116132219
  S        15.0906519950        4.8505343779        7.1183867817
 Mo        15.1153563280        6.7285217751        5.5649999986
  S        16.7289125736        7.6873730658        4.0110234545
  S        16.7289125788        7.6873730642        7.1189765458
 Mo        16.5829253889        9.4754533759        5.5649999990
 Mo        16.7200291103        4.1356343865        5.5649999995
  S        18.1458202239        4.9787762825        3.8200708390
  S        18.1458202238        4.9787762803        7.3099291600
 Mo        18.1622149106        6.6357966920        5.5649999993
 Mo        19.4091814820        4.2432815266        5.5650000007
      51
 i =        4, E =     -1739.6246675208
 Mo         4.4954546370        4.2765326445        5.5650000000
  S         5.7262724910        4.9983776103        3.7876754697
  S         5.7262725080        4.9983776224        7.3423245236
 Mo         5.7150885248        6.6025877979        5.5649999951
  S         7.1144251424        7.7208967557        4.0030024935
  S         7.1144251417        7.7208967531        7.1269975034
 Mo         7.2787100535        9.5105498466        5.5649999996
  S         8.7313982234       10.4136035407        3.9587996742
  S         8.7313982166       10.4136035438        7.1712003280
 Mo         8.7884439096       12.1226222724        5.5649999971
  S        10.2565137563       13.1610848039        4.0040788283
  S        10.2565137505       13.1610847991        7.1259211602
 Mo        10.5249723231       14.9382134426        5.5649999938
  S        11.9196194980       15.7247401704        3.7896943238
  S        11.9196194987       15.7247401301        7.3403056603
 Mo        11.9201749825       17.1568284157        5.5650000030
 Mo         7.1070801654        4.1853567958        5.5649999967
  S         8.7796945686        4.8364009201        4.0043477077
  S         8.7796945691        4.8364009178        7.1256522945
 Mo         8.7169635679        6.7245136962        5.5650000014
  S        10.3166776255        7.6475089099        4.0263390147
  S        10.3166776289        7.6475088818        7.1036610018
 Mo        10.3337821062        9.4888476376        5.5650000187
  S        11.9196852517       10.4241648135        4.0255106116
  S        11.9196852641       10.4241648410        7.1044894052
 Mo        11.9197265344       12.2701238805        5.5650000069
  S        13.5829314492       13.1611113945        4.0040638944
  S        13.5829314667       13.1611114326        7.1259361290
 Mo        13.3141563837       14.9385072298        5.5649999929
 Mo        10.4150864148        4.0848123694        5.5650000038
  S        11.9197337093        4.8907331621        3.9563546991
  S        11.9197337136        4.8907331938        7.1736452877
 Mo        11.9197080661        6.7410669625        5.5649999980
  S        13.5227386619        7.6474830409        4.0263856266
  S        13.5227386654        7.6474830606        7.1036143582
 Mo        13.5056725658        9.4888711264        5.5649999994
  S        15.1079423060       10.4135318359        3.9586891986
  S        15.1079423049       10.4135318295        7.1713108055
 Mo        15.0510219743       12.1225120812        5.5650000083
 Mo        13.4242111892        4.0847736121        5.5650000004
  S        15.0597193014        4.8363883878        4.0043410607
  S        15.0597192967        4.8363883895        7.1256589418
 Mo        15.1225500438        6.7244787618        5.5649999967
  S        16.7250410105        7.7209161789        4.0029825690
  S        16.7250410104        7.7209161774        7.1270174288
 Mo        16.5606042211        9.5107750310        5.5650000007
 Mo        16.7321012700        4.1854029660        5.5649999961
  S        18.1131871414        4.9982478522        3.7875102981
  S        18.1131871174        4.9982478652        7.3424896942
 Mo        18.1242820672        6.6023651148        5.5649999974
 Mo        19.3440598847        4.2770298713        5.5650000020
      51
 i =        5, E =     -1739.6159594453
 Mo         4.7315866114        4.3937926139        5.5650000102
  S         5.8360518215        5.0666110238        3.6433063982
  S         5.8360519244        5.0666110879        7.4866935646
 Mo         5.8793504729        6.4761474202        5.5649999843
  S         7.1245122355        7.8487768552        3.9708880024
  S         7.1245122407        7.8487768598        7.1591119903
 Mo         7.3750475318        9.6444761494        5.5649999992
  S         8.7672393548       10.3925238097        3.9058056640
  S         8.7672393359       10.3925238258        7.2241943495
 Mo         8.7233202439       11.9723152009        5.5649999994
  S        10.1514922693       13.0901303196        3.9744886393
  S        10.1514922471       13.0901303341        7.1555113431
 Mo        10.7059637016       14.8710671132        5.5649999812
  S        11.9192184737       15.5913320106        3.6560239838
  S        11.9192184757       15.5913319076        7.4739759927
 Mo        11.9208996803       16.9068284157        5.5650000126
 Mo         7.0688646363        4.3897489358        5.5649999864
  S         8.8946488988        4.7776869441        3.9759394394
  S         8.8946488990        4.7776869353        7.1540605645
 Mo         8.6868691704        6.7082183483        5.5650000023
  S        10.3077988928        7.6418497334        4.0206025041
  S        10.3077988815        7.6418496877        7.1093975382
 Mo        10.3402404674        9.4855089712        5.5650000403
  S        11.9196948842       10.4330914900        4.0187847193
  S        11.9196949122       10.4330915941        7.1112152846
 Mo        11.9198680447       12.3024768306        5.5650000064
  S        13.6879667851       13.0904375829        3.9746971141
  S        13.6879668303       13.0904376478        7.1553029233
 Mo        13.1330330697       14.8719726053        5.5649999921
 Mo        10.5859471651        4.1005017602        5.5650000049
  S        11.9197149604        4.9341955834        3.9004971888
  S        11.9197149718        4.9341956098        7.2295028070
 Mo        11.9197763141        6.7456196436        5.5650000105
  S        13.5316316093        7.6418266121        4.0207442938
  S        13.5316316133        7.6418266132        7.1092556929
 Mo        13.4994166521        9.4855735043        5.5650000119
  S        15.0718902077       10.3923556237        3.9055880495
  S        15.0718902077       10.3923556222        7.2244119676
 Mo        15.1163706642       11.9717757038        5.5650000122
 Mo        13.2535442226        4.1002341484        5.5649999991
  S        14.9444753053        4.7777338659        3.9758862511
  S        14.9444752901        4.7777338796        7.1541137434
 Mo        15.1529987502        6.7081415294        5.5649999884
  S        16.7150148098        7.8488883732        3.9710465581
  S        16.7150147910        7.8488883753        7.1589534283
 Mo        16.4642954242        9.6450619844        5.5650000044
 Mo        16.7699321227        4.3901724891        5.5649999870
  S        18.0035068749        5.0659530666        3.6430720234
  S        18.0035067727        5.0659531303        7.4869279473
 Mo        17.9599725319        6.4756288641        5.5649999908
 Mo        19.1080074669        4.3951108968        5.5650000100
      51
 i =        6, E =     -1739.6628485914
 Mo         4.5659904461        4.2991788962        5.5650000084
  S         5.7417535632        5.0132915526        3.7435973405
  S         5.7417536525        5.0132916080        7.3864026295
 Mo         5.8548285948        6.5439572580        5.5649999847
  S         7.1386448419        7.8192768588        3.9711087999
  S         7.1386448470        7.8192768605        7.1588911938
 Mo         7.3395411754        9.6009914401        5.5649999998
  S         8.7614235335       10.3963642043        3.9272264245
  S         8.7614235150       10.3963642190        7.2027735885
 Mo         8.7416634006       12.0266418049        5.5650000007
  S        10.1838564013       13.0929097986        3.9742805103
  S        10.1838563813       13.0929098163        7.1557194790
 Mo        10.6423606905       14.8569247484        5.5649999851
  S        11.9191531972       15.6999627205        3.7468378893
  S        11.9191531980       15.6999626249        7.3831620980
 Mo        11.9209655028       17.0856414273        5.5650000100
 Mo         7.1178925482        4.3325288830        5.5649999863
  S         8.8754803689        4.8055833718        3.9752523162
  S         8.8754803729        4.8055833713        7.1547476834
 Mo         8.7257229510        6.7317277156        5.5650000027
  S        10.3187782582        7.6480608663        4.0062869878
  S        10.3187782767        7.6480608436        7.1237130484
 Mo        10.3384529522        9.4859079622        5.5650000316
  S        11.9196995424       10.4210862797        4.0055634809
  S        11.9196995707       10.4210863778        7.1244365099
 Mo        11.9198052088       12.2595879252        5.5650000020
  S        13.6555400087       13.0932125246        3.9745083801
  S        13.6555400462       13.0932125707        7.1554916471
 Mo        13.1968693542       14.8577000568        5.5649999919
 Mo        10.5266071810        4.0907800614        5.5650000033
  S        11.9196760148        4.9273980564        3.9236213658
  S        11.9196760223        4.9273980697        7.2063786365
 Mo        11.9197828297        6.7447485246        5.5650000058
  S        13.5206369803        7.6480525441        4.0063977909
  S        13.5206369698        7.6480525424        7.1236022079
 Mo        13.5011363463        9.4859268886        5.5650000106
  S        15.0777111786       10.3962411350        3.9270988041
  S        15.0777111815       10.3962411358        7.2029012100
 Mo        15.0980078939       12.0262576951        5.5650000079
 Mo        13.3129387457        4.0906532433        5.5650000007
  S        14.9636200542        4.8056170129        3.9751889196
  S        14.9636200446        4.8056170225        7.1548110755
 Mo        15.1140273214        6.7316525242        5.5649999927
  S        16.7008335114        7.8193639772        3.9712674376
  S        16.7008335006        7.8193639727        7.1587325519
 Mo        16.4998449237        9.6013588447        5.5650000068
 Mo        16.7210479342        4.3328857902        5.5649999841
  S        18.0977580075        5.0126149033        3.7436170293
  S        18.0977579143        5.0126149606        7.3863829500
 Mo        17.9845897072        6.5436557885        5.5649999886
 Mo        19.2738075320        4.3003825663        5.5650000102
      51
 i =        7, E =     -1739.7400038263
 Mo         4.6058957973        4.2735200662        5.5650000162
  S         5.6536807266        4.9869527317        3.6785534303
  S         5.6536808832        4.9869528265        7.4514465194
 Mo         6.0478627203        6.4422185216        5.5649999659
  S         7.2055037905        7.8905773913        3.9441910055
  S         7.2055038028        7.8905773803        7.1858089830
 Mo         7.3474192166        9.6454440312        5.5650000017
  S         8.7971487633       10.3772471542        3.9204534464
  S         8.7971487257       10.3772471795        7.2095465763
 Mo         8.7041272947       12.0019885144        5.5650000054
  S        10.1568878482       13.0045138336        3.9506640998
  S        10.1568878143       13.0045138904        7.1793358980
 Mo        10.8255241031       14.7562237127        5.5649999791
  S        11.9176195037       15.7832120521        3.6688731138
  S        11.9176195056       15.7832118583        7.4611268817
 Mo        11.9235056159       17.0532038966        5.5650000199
 Mo         7.1082834472        4.5322300684        5.5649999631
  S         8.9650770722        4.8244218834        3.9536583900
  S         8.9650770785        4.8244218996        7.1763416002
 Mo         8.8049086758        6.7818746882        5.5650000137
  S        10.3287686982        7.6528335697        3.9744737920
  S        10.3287688530        7.6528335946        7.1555262676
 Mo        10.3445865425        9.4808877786        5.5650000390
  S        11.9197137326       10.4104294712        3.9756429465
  S        11.9197137991       10.4104296518        7.1543569949
 Mo        11.9197854386       12.1723406972        5.5649999887
  S        13.6824299350       13.0052755902        3.9513051405
  S        13.6824299905       13.0052756236        7.1786948795
 Mo        13.0142178632       14.7585027146        5.5649999821
 Mo        10.5682701263        4.0712798546        5.5650000027
  S        11.9195636840        4.9706273620        3.9175893880
  S        11.9195636868        4.9706273344        7.2124106381
 Mo        11.9199329573        6.7522172930        5.5649999996
  S        13.5106281578        7.6528498759        3.9745935175
  S        13.5106280896        7.6528498554        7.1554065296
 Mo        13.4951390480        9.4808151713        5.5650000205
  S        15.0417149519       10.3770888933        3.9203472090
  S        15.0417149718       10.3770889079        7.2096528141
 Mo        15.1358568058       12.0015411435        5.5650000019
 Mo        13.2714699565        4.0714473899        5.5650000058
  S        14.8735518138        4.8245275708        3.9533931072
  S        14.8735518262        4.8245275729        7.1766068898
 Mo        15.0349439646        6.7817553855        5.5650000024
  S        16.6339777735        7.8907463637        3.9445043727
  S        16.6339777799        7.8907463321        7.1854956226
 Mo        16.4919533036        9.6457737496        5.5650000205
 Mo        16.7303461718        4.5333894657        5.5649999562
  S        18.1857161596        4.9848429103        3.6788794107
  S        18.1857159804        4.9848430196        7.4511205569
 Mo        17.7919717347        6.4416316650        5.5649999666
 Mo        19.2350407694        4.2765005908        5.5650000282
      51
 i =        8, E =     -1739.7800794043
 Mo         4.6249671669        4.2479464086        5.5650000277
  S         5.5520022760        4.9534048323        3.6571242023
  S         5.5520023980        4.9534049016        7.4728757697
 Mo         5.9748926223        6.4683459002        5.5649999594
  S         7.2190725421        7.8371375326        3.9798171910
  S         7.2190725450        7.8371375150        7.1501827966
 Mo         7.3583727503        9.6039679599        5.5650000027
  S         8.7903511449       10.3829658065        3.9305601259
  S         8.7903511223       10.3829658267        7.1994399040
 Mo         8.7467964290       12.0127478662        5.5650000011
  S        10.2079900415       13.0211449223        3.9820278356
  S        10.2079900232       13.0211449733        7.1479721433
 Mo        10.7690943684       14.7883604342        5.5649999759
  S        11.9161504443       15.8934512021        3.6465483933
  S        11.9161504461       15.8934510108        7.4834516054
 Mo        11.9256645740       17.0602369176        5.5650000561
 Mo         7.0993811078        4.4476816503        5.5649999569
  S         8.9213967847        4.8604082320        3.9867450464
  S         8.9213967870        4.8604082507        7.1432549377
 Mo         8.8713066198        6.8176837735        5.5650000282
  S        10.3448390087        7.6625327507        3.9674457066
  S        10.3448391557        7.6625327955        7.1625543443
 Mo        10.3577833633        9.4734166134        5.5650000249
  S        11.9197252288       10.3931391243        3.9696763657
  S        11.9197252659       10.3931392400        7.1603236250
 Mo        11.9196908580       12.1009358017        5.5649999693
  S        13.6315016541       13.0220692812        3.9825639366
  S        13.6315016802       13.0220692944        7.1474360397
 Mo        13.0711590171       14.7907138505        5.5649999686
 Mo        10.5322208324        4.1036365462        5.5650000011
  S        11.9195343934        4.9607181942        3.9300366331
  S        11.9195343892        4.9607181841        7.1999633755
 Mo        11.9198772727        6.7695625789        5.5649999993
  S        13.4945680118        7.6625373327        3.9674537367
  S        13.4945679542        7.6625373353        7.1625463134
 Mo        13.4818588376        9.4733224292        5.5650000148
  S        15.0486352002       10.3829085749        3.9305103571
  S        15.0486352148       10.3829085901        7.1994896695
 Mo        15.0929478070       12.0125570292        5.5650000004
 Mo        13.3072476031        4.1039506177        5.5650000040
  S        14.9173737670        4.8607446363        3.9865673128
  S        14.9173737920        4.8607446197        7.1434326783
 Mo        14.9680760023        6.8177483800        5.5650000172
  S        16.6204215713        7.8371555918        3.9801302226
  S        16.6204215988        7.8371555613        7.1498697762
 Mo        16.4808126486        9.6041388410        5.5650000135
 Mo        16.7394514273        4.4482599443        5.5649999522
  S        18.2866433585        4.9504643131        3.6572589461
  S        18.2866431973        4.9504644061        7.4727410296
 Mo        17.8657503552        6.4682999317        5.5649999559
 Mo        19.2172325078        4.2519284161        5.5650000514
      51
 i =        9, E =     -1739.8131431284
 Mo         4.6441153557        4.1655752198        5.5650000256
  S         5.4267045626        4.9362552870        3.6522461745
  S         5.4267046765        4.9362553481        7.4777538079
 Mo         6.0122554926        6.4512586503        5.5649999664
  S         7.2336030850        7.8122888770        3.9920234297
  S         7.2336030878        7.8122888727        7.1379765744
 Mo         7.4072815669        9.6306142985        5.5650000071
  S         8.8057724634       10.3757325555        3.9076197685
  S         8.8057724520       10.3757325802        7.2223802695
 Mo         8.7526420959       11.9570762509        5.5649999988
  S        10.2349693944       13.0246836490        3.9898375032
  S        10.2349693821       13.0246836849        7.1401624468
 Mo        10.8100118808       14.7540790764        5.5649999704
  S        11.9127001322       16.0238887707        3.6348202474
  S        11.9127001392       16.0238885288        7.4951797725
 Mo        11.9312557013       17.0743284642        5.5650000884
 Mo         7.1157997537        4.4821953880        5.5649999679
  S         8.9000493651        4.8792051433        3.9924688414
  S         8.9000493956        4.8792051621        7.1375311351
 Mo         8.8889373197        6.8278841204        5.5650000399
  S        10.3782701203        7.6815194626        3.9541086653
  S        10.3782701781        7.6815194978        7.1758913735
 Mo        10.3751845724        9.4630057121        5.5650000189
  S        11.9198101533       10.3558507119        3.9568578708
  S        11.9198101453       10.3558507974        7.1731421395
 Mo        11.9194784719       12.0731153906        5.5649999511
  S        13.6047170484       13.0262481231        3.9900060307
  S        13.6047170500       13.0262481139        7.1399938975
 Mo        13.0310557855       14.7562202595        5.5649999556
 Mo        10.5734127101        4.1338732035        5.5649999939
  S        11.9194682186        4.9775297276        3.9087517319
  S        11.9194682317        4.9775297424        7.2212482679
 Mo        11.9197483594        6.7906066327        5.5650000151
  S        13.4610895348        7.6815907263        3.9541012149
  S        13.4610895283        7.6815907339        7.1758988305
 Mo        13.4644583475        9.4629348331        5.5650000207
  S        15.0331549204       10.3757144786        3.9074934261
  S        15.0331549205       10.3757145145        7.2225066052
 Mo        15.0870143783       11.9570759544        5.5649999911
 Mo        13.2658664023        4.1340375180        5.5649999957
  S        14.9388687251        4.8798168931        3.9926507533
  S        14.9388687323        4.8798168560        7.1373492280
 Mo        14.9504834456        6.8277844686        5.5650000247
  S        16.6060440824        7.8120690869        3.9922846627
  S        16.6060441082        7.8120690824        7.1377153292
 Mo        16.4320598180        9.6308652654        5.5650000120